% Model:              segmentedSolenoid.mph
% Version:            COMSOL 5.1.0.234
% Date:               Jul 12 2018, 17:23
% Dimension:          3
% Nodes:              4224
% Expressions:        3
% Description:        Arrow volume
% x                       y                        z                        VectorX                  VectorY                  VectorZ
-0.30000000000000004      -0.5                     -1.9                     7.555980722099358E-9     1.257083139671216E-8     -3.8722956568240356E-9
-0.10000000000000009      -0.5                     -1.9                     2.6478813632701188E-9    1.3393668655025784E-8    -1.8146980643195558E-9
0.10000000000000009       -0.5                     -1.9                     -2.6556908301697864E-9   1.3270018965110491E-8    -1.7985731015620784E-9
0.2999999999999998        -0.5                     -1.9                     -7.463891914761627E-9    1.2377769873481377E-8    -3.771774120083426E-9
-0.5                      -0.30000000000000004     -1.9                     1.2452681448331184E-8    7.536436642089655E-9     -3.792498005297403E-9
-0.30000000000000004      -0.30000000000000004     -1.9                     8.431834103683414E-9     8.452033784522054E-9     2.6040047053770077E-10
-0.10000000000000009      -0.30000000000000004     -1.9                     3.038264546503348E-9     8.967427281392644E-9     2.623766140033736E-9
0.10000000000000009       -0.30000000000000004     -1.9                     -3.130379786262077E-9    8.917727278068062E-9     2.514903325340839E-9
0.2999999999999998        -0.30000000000000004     -1.9                     -8.40554814294614E-9     8.434866317319856E-9     3.3206760706737835E-10
0.5                       -0.30000000000000004     -1.9                     -1.2565735198487603E-8   7.49561551195346E-9      -3.8507074382119015E-9
-0.5                      -0.10000000000000009     -1.9                     1.3342038111395801E-8    2.634676842207195E-9     -1.8344404456648691E-9
-0.30000000000000004      -0.10000000000000009     -1.9                     8.93678873724913E-9      3.0433483516255676E-9    2.5358191301919374E-9
-0.10000000000000009      -0.10000000000000009     -1.9                     3.124684423987365E-9     3.0971415505321906E-9    5.104597492166117E-9
0.10000000000000009       -0.10000000000000009     -1.9                     -3.1435107584735793E-9   3.124889659337713E-9     5.083317181327273E-9
0.2999999999999998        -0.10000000000000009     -1.9                     -8.987246107957026E-9    3.0874410041096717E-9    2.4926051404664145E-9
0.5                       -0.10000000000000009     -1.9                     -1.3346861957057958E-8   2.637438631006158E-9     -1.8225978516487546E-9
-0.5                      0.10000000000000009      -1.9                     1.3367885337281825E-8    -2.6201839047037828E-9   -1.8189179191895994E-9
-0.30000000000000004      0.10000000000000009      -1.9                     8.956325690053048E-9     -3.018992553542029E-9    2.5126400355095453E-9
-0.10000000000000009      0.10000000000000009      -1.9                     3.182659712078959E-9     -3.2027415011156653E-9   5.035347510685005E-9
0.10000000000000009       0.10000000000000009      -1.9                     -3.162931563819374E-9    -3.216277948171422E-9    5.079075592438511E-9
0.2999999999999998        0.10000000000000009      -1.9                     -8.957239954624158E-9    -2.98502618596602E-9     2.5241809264584966E-9
0.5                       0.10000000000000009      -1.9                     -1.3242371665270441E-8   -2.674049564870975E-9    -1.800159193464649E-9
-0.5                      0.2999999999999998       -1.9                     1.249405382066656E-8     -7.584084492465304E-9    -3.816310026660007E-9
-0.30000000000000004      0.2999999999999998       -1.9                     8.456424460675802E-9     -8.48064358467479E-9     1.796364892648729E-10
-0.10000000000000009      0.2999999999999998       -1.9                     2.9638605502841733E-9    -8.874284992215506E-9    2.581363733428512E-9
0.10000000000000009       0.2999999999999998       -1.9                     -2.966441790038928E-9    -8.975507641410715E-9    2.527843299721441E-9
0.2999999999999998        0.2999999999999998       -1.9                     -8.431889496118961E-9    -8.414537010179653E-9    2.945611154934307E-10
0.5                       0.2999999999999998       -1.9                     -1.2414355177695073E-8   -7.484018052151281E-9    -3.791776282141478E-9
-0.30000000000000004      0.5                      -1.9                     7.41432194591602E-9      -1.2735834813416894E-8   -3.833106906195021E-9
-0.10000000000000009      0.5                      -1.9                     2.664377161501917E-9     -1.3356564753743713E-8   -1.8633460664574913E-9
0.10000000000000009       0.5                      -1.9                     -2.5953714155978242E-9   -1.3348817571560077E-8   -1.815806273566091E-9
0.2999999999999998        0.5                      -1.9                     -7.543643154996162E-9    -1.2483666798304476E-8   -3.826162703528666E-9
-0.5                      -0.8999999999999999      -1.7                     1.123269164889396E-8     1.989267611796139E-8     -1.316675464892947E-8
-0.30000000000000004      -0.8999999999999999      -1.7                     7.486810866212017E-9     2.2076332112344496E-8    -1.0532173829368613E-8
-0.10000000000000009      -0.8999999999999999      -1.7                     2.486781098124855E-9     2.342100566399163E-8     -8.586874476147791E-9
0.10000000000000009       -0.8999999999999999      -1.7                     -2.6135569670899167E-9   2.333690285235667E-8     -8.666568527492078E-9
0.2999999999999998        -0.8999999999999999      -1.7                     -7.45372024392601E-9     2.2215287700527236E-8    -1.0089705123815764E-8
0.5                       -0.8999999999999999      -1.7                     -1.0994841453110585E-8   1.995320710641458E-8     -1.31549418379824E-8
-0.7                      -0.7                     -1.7                     1.623146085154979E-8     1.6590046132722863E-8    -1.1890002486491552E-8
-0.5                      -0.7                     -1.7                     1.3813350835789326E-8    1.939831522044164E-8     -6.870665992390252E-9
-0.30000000000000004      -0.7                     -1.7                     9.37121210489613E-9      2.1767409578100053E-8    -2.500949887969908E-9
-0.10000000000000009      -0.7                     -1.7                     3.4400007168239623E-9    2.2817308765420083E-8    -1.8672830860802249E-10
0.10000000000000009       -0.7                     -1.7                     -3.3189537678538924E-9   2.3057264102522324E-8    -6.843638932007008E-10
0.2999999999999998        -0.7                     -1.7                     -9.44469730825509E-9     2.1752211381688206E-8    -2.879928893924678E-9
0.5                       -0.7                     -1.7                     -1.3712720122997487E-8   1.943165103076895E-8     -6.709043463668996E-9
0.7000000000000002        -0.7                     -1.7                     -1.6569555396999084E-8   1.6083078276551E-8       -1.2075645635315283E-8
-0.8999999999999999       -0.5                     -1.7                     1.9825532796765385E-8    1.1171306802318053E-8    -1.3146010270876323E-8
-0.7                      -0.5                     -1.7                     1.9322490995797152E-8    1.3897172402807885E-8    -6.720105038280055E-9
-0.5                      -0.5                     -1.7                     1.6654120257871505E-8    1.6643699645345006E-8    1.9638407291892954E-10
-0.30000000000000004      -0.5                     -1.7                     1.1143314031955853E-8    1.8520070019486376E-8    5.326568370077808E-9
-0.10000000000000009      -0.5                     -1.7                     4.0007664832299625E-9    1.984876706854194E-8     8.777521176887259E-9
0.10000000000000009       -0.5                     -1.7                     -3.6340882085709776E-9   2.011385199177868E-8     9.348054250752083E-9
0.2999999999999998        -0.5                     -1.7                     -1.1238921313424804E-8   1.862322613106147E-8     5.842667966455876E-9
0.5                       -0.5                     -1.7                     -1.6493668361437818E-8   1.6543771966872885E-8    -1.884204056174776E-10
0.7000000000000002        -0.5                     -1.7                     -1.8779814049197156E-8   1.3275890621657766E-8    -6.879294935558483E-9
0.8999999999999999        -0.5                     -1.7                     -2.000222736836118E-8    1.113273127132688E-8     -1.3156859940022151E-8
-0.8999999999999999       -0.30000000000000004     -1.7                     2.2147801097610456E-8    7.519505603241724E-9     -1.0466423855127729E-8
-0.7                      -0.30000000000000004     -1.7                     2.1745330317937536E-8    9.384772499012536E-9     -2.6555652303889856E-9
-0.5                      -0.30000000000000004     -1.7                     1.8501437567088878E-8    1.0939425645249762E-8    5.853209595926857E-9
-0.30000000000000004      -0.30000000000000004     -1.7                     1.2656493045371432E-8    1.2196062825863262E-8    1.1708530327755632E-8
-0.10000000000000009      -0.30000000000000004     -1.7                     4.294631098607368E-9     1.330032757470873E-8     1.5936382519104046E-8
0.10000000000000009       -0.30000000000000004     -1.7                     -4.569377011646457E-9    1.3596431195057862E-8    1.6323769065647552E-8
0.2999999999999998        -0.30000000000000004     -1.7                     -1.2706373065812246E-8   1.3258822016071096E-8    1.2022086988542274E-8
0.5                       -0.30000000000000004     -1.7                     -1.8432031495293353E-8   1.1146119443046407E-8    5.357507766000737E-9
0.7000000000000002        -0.30000000000000004     -1.7                     -2.179125558156924E-8    9.407700639663037E-9     -2.544946710199822E-9
0.8999999999999999        -0.30000000000000004     -1.7                     -2.2123153191378477E-8   7.507571688724591E-9     -1.0505497283217007E-8
-0.8999999999999999       -0.10000000000000009     -1.7                     2.3665841154917727E-8    2.6258165318880038E-9    -8.384372675279352E-9
-0.7                      -0.10000000000000009     -1.7                     2.3075981567828274E-8    3.3861046269781536E-9    -3.6889937363429963E-10
-0.5                      -0.10000000000000009     -1.7                     2.0235270545570608E-8    3.873641765285063E-9     8.357747165563485E-9
-0.30000000000000004      -0.10000000000000009     -1.7                     1.3712322760484536E-8    4.568038270142329E-9     1.6301482024197345E-8
-0.10000000000000009      -0.10000000000000009     -1.7                     5.074274558752236E-9     4.761568838601317E-9     2.029760429515949E-8
0.10000000000000009       -0.10000000000000009     -1.7                     -4.639268335685697E-9    4.89192300260551E-9      2.0260711563926325E-8
0.2999999999999998        -0.10000000000000009     -1.7                     -1.3659112780687958E-8   4.5111462124234605E-9    1.6305352696069394E-8
0.5                       -0.10000000000000009     -1.7                     -1.9810513333922273E-8   4.021418816639926E-9     8.687680010369015E-9
0.7000000000000002        -0.10000000000000009     -1.7                     -2.305914605417423E-8    3.229470673116145E-9     -3.6685102660715914E-10
0.8999999999999999        -0.10000000000000009     -1.7                     -2.351589667988608E-8    2.602488531296783E-9     -8.538916787109814E-9
-0.8999999999999999       0.10000000000000009      -1.7                     2.3479090704088895E-8    -2.60704095313837E-9     -8.634181805245427E-9
-0.7                      0.10000000000000009      -1.7                     2.2992286713520924E-8    -3.278475358902333E-9    -6.103191814519637E-10
-0.5                      0.10000000000000009      -1.7                     1.9849570045115884E-8    -3.909083399172901E-9    8.712594383393115E-9
-0.30000000000000004      0.10000000000000009      -1.7                     1.3649326281097232E-8    -4.619194320898107E-9    1.6180147392074366E-8
-0.10000000000000009      0.10000000000000009      -1.7                     4.859080055576528E-9     -4.883414934436594E-9    2.082873952386199E-8
0.10000000000000009       0.10000000000000009      -1.7                     -4.916974889736453E-9    -4.8941861965593915E-9   2.0727812845489337E-8
0.2999999999999998        0.10000000000000009      -1.7                     -1.36210322259042E-8     -4.475144256536086E-9    1.6079551527278365E-8
0.5                       0.10000000000000009      -1.7                     -2.0082797962209066E-8   -3.726775642121775E-9    9.302016097765209E-9
0.7000000000000002        0.10000000000000009      -1.7                     -2.2985670008566546E-8   -3.1273249451886657E-9   -1.6239993000873593E-10
0.8999999999999999        0.10000000000000009      -1.7                     -2.361170892720122E-8    -2.5991329212276846E-9   -8.407769657871328E-9
-0.8999999999999999       0.2999999999999998       -1.7                     2.2099357668113373E-8    -7.209678332281359E-9    -1.044208905110487E-8
-0.7                      0.2999999999999998       -1.7                     2.1887439768145795E-8    -9.385608081059918E-9    -2.604906020015659E-9
-0.5                      0.2999999999999998       -1.7                     1.829193964853321E-8     -1.1385769636999365E-8   5.121946114202442E-9
-0.30000000000000004      0.2999999999999998       -1.7                     1.2823162190605039E-8    -1.2813861319294787E-8   1.2293948726958383E-8
-0.10000000000000009      0.2999999999999998       -1.7                     4.587785783052903E-9     -1.375357749046763E-8    1.560310183879483E-8
0.10000000000000009       0.2999999999999998       -1.7                     -4.642878297887157E-9    -1.3697042916345177E-8   1.6318029718996198E-8
0.2999999999999998        0.2999999999999998       -1.7                     -1.330387055658935E-8    -1.2663646808011277E-8   1.2095953917511425E-8
0.5                       0.2999999999999998       -1.7                     -1.8572975221604325E-8   -1.1098625120437582E-8   5.629343584244814E-9
0.7000000000000002        0.2999999999999998       -1.7                     -2.1852292445017227E-8   -9.472850396329315E-9    -2.5809745827339078E-9
0.8999999999999999        0.2999999999999998       -1.7                     -2.2317291708217188E-8   -7.422418745300779E-9    -1.0089754745743167E-8
-0.8999999999999999       0.5                      -1.7                     2.0091839787447846E-8    -1.1316361614271148E-8   -1.3225866673691234E-8
-0.7                      0.5                      -1.7                     1.91448110565595E-8      -1.3712224024986249E-8   -6.696329317033699E-9
-0.5                      0.5                      -1.7                     1.6416289009258317E-8    -1.6538534819270235E-8   -1.2795422634777196E-10
-0.30000000000000004      0.5                      -1.7                     1.1021440677564125E-8    -1.8600728767184605E-8   5.430163594763697E-9
-0.10000000000000009      0.5                      -1.7                     4.003005565418991E-9     -2.0252756969636997E-8   9.054524848848425E-9
0.10000000000000009       0.5                      -1.7                     -3.942109204656721E-9    -1.962118176266917E-8    8.758612453991107E-9
0.2999999999999998        0.5                      -1.7                     -1.1043310104968864E-8   -1.9047186427858667E-8   5.567439827663121E-9
0.5                       0.5                      -1.7                     -1.675984694632746E-8    -1.6778115995817663E-8   4.321671306463589E-10
0.7000000000000002        0.5                      -1.7                     -1.9241263924469928E-8   -1.3689330792935369E-8   -6.62943302751634E-9
0.8999999999999999        0.5                      -1.7                     -1.9791685847462676E-8   -1.106208174556361E-8    -1.3125631156200273E-8
-0.7                      0.7000000000000002       -1.7                     1.640958436952623E-8     -1.642151404419494E-8    -1.1687862688575495E-8
-0.5                      0.7000000000000002       -1.7                     1.373978304611678E-8     -1.9538769958467632E-8   -7.000658194292017E-9
-0.30000000000000004      0.7000000000000002       -1.7                     9.508485220668693E-9     -2.1612476235991523E-8   -2.6937965794358715E-9
-0.10000000000000009      0.7000000000000002       -1.7                     3.3117541110493723E-9    -2.3100678623761018E-8   -2.2866150037415486E-10
0.10000000000000009       0.7000000000000002       -1.7                     -3.854798389822971E-9    -2.3167540899652975E-8   2.143523859532731E-10
0.2999999999999998        0.7000000000000002       -1.7                     -9.314891315305843E-9    -2.1789654822985362E-8   -2.517546724796409E-9
0.5                       0.7000000000000002       -1.7                     -1.3592104680825228E-8   -1.921500711482224E-8    -6.60049553105773E-9
0.7000000000000002        0.7000000000000002       -1.7                     -1.6353362809859878E-8   -1.6541329227342437E-8   -1.171501298859372E-8
-0.5                      0.8999999999999999       -1.7                     1.1056130697370686E-8    -2.0058529889011625E-8   -1.3152403725553153E-8
-0.30000000000000004      0.8999999999999999       -1.7                     7.592092369690136E-9     -2.183944414102991E-8    -1.0342888429411587E-8
-0.10000000000000009      0.8999999999999999       -1.7                     2.646913691282883E-9     -2.3594186282016317E-8   -8.549972905356377E-9
0.10000000000000009       0.8999999999999999       -1.7                     -2.671225750234072E-9    -2.3408078781399983E-8   -8.736936797581624E-9
0.2999999999999998        0.8999999999999999       -1.7                     -7.435138850452154E-9    -2.227136438746036E-8    -1.0170836334146555E-8
0.5                       0.8999999999999999       -1.7                     -1.1173341512706922E-8   -1.9736503819817154E-8   -1.3370418476373478E-8
-0.10000000000000009      -1.2999999999999998      -1.5                     1.8116160457754569E-9    2.4578674170510253E-8    -2.0801875207162017E-8
0.10000000000000009       -1.2999999999999998      -1.5                     -1.9171060642754E-9      2.457241182367157E-8     -2.0848957843791087E-8
-0.7                      -1.1                     -1.5                     1.3239968893127628E-8    2.083858327286115E-8     -2.0895852157352424E-8
-0.5                      -1.1                     -1.5                     1.1139697542835469E-8    2.4571398816963443E-8    -1.8111717001702565E-8
-0.30000000000000004      -1.1                     -1.5                     7.530644904196702E-9     2.7429654301817748E-8    -1.5636856179128354E-8
-0.10000000000000009      -1.1                     -1.5                     2.7563414109583312E-9    2.9440040940233746E-8    -1.423739925013547E-8
0.10000000000000009       -1.1                     -1.5                     -2.8832467933098155E-9   2.949453331191379E-8     -1.4124674475479627E-8
0.2999999999999998        -1.1                     -1.5                     -7.536149212894831E-9    2.7692906936270457E-8    -1.5405859653642253E-8
0.5                       -1.1                     -1.5                     -1.0967775217418077E-8   2.449894359365094E-8     -1.845815352849319E-8
0.7000000000000002        -1.1                     -1.5                     -1.3275541990541983E-8   2.0927409065325478E-8    -2.0909268260649387E-8
-0.8999999999999999       -0.8999999999999999      -1.5                     1.7988627110689885E-8    1.8008715288390106E-8    -2.002033294053802E-8
-0.7                      -0.8999999999999999      -1.5                     1.7524970285433024E-8    2.2734838459590495E-8    -1.5534991575320157E-8
-0.5                      -0.8999999999999999      -1.5                     1.4937506580270868E-8    2.7004483970828113E-8    -1.1119525957461917E-8
-0.30000000000000004      -0.8999999999999999      -1.5                     1.0224760497727978E-8    3.087991646533188E-8     -6.800415022655594E-9
-0.10000000000000009      -0.8999999999999999      -1.5                     3.4953533442221978E-9    3.284898728978475E-8     -4.0698877776432106E-9
0.10000000000000009       -0.8999999999999999      -1.5                     -3.439262494324066E-9    3.387250816699854E-8     -4.074014981643448E-9
0.2999999999999998        -0.8999999999999999      -1.5                     -1.0161167877534596E-8   3.078549184777066E-8     -6.226219269036146E-9
0.5                       -0.8999999999999999      -1.5                     -1.5136749751560364E-8   2.7442278314186852E-8    -1.0782764535737952E-8
0.7000000000000002        -0.8999999999999999      -1.5                     -1.7180045015868067E-8   2.255443150369554E-8     -1.5953986996302242E-8
0.8999999999999999        -0.8999999999999999      -1.5                     -1.799226564065823E-8    1.8009551602379947E-8    -2.0093716821943127E-8
-1.1                      -0.7                     -1.5                     2.1158312973148457E-8    1.3385651913073138E-8    -2.110801066485387E-8
-0.8999999999999999       -0.7                     -1.5                     2.2653062523603658E-8    1.7678516330773496E-8    -1.5509685330695963E-8
-0.7                      -0.7                     -1.5                     2.2671726140481167E-8    2.253856378618554E-8     -8.769937716943716E-9
-0.5                      -0.7                     -1.5                     1.9781940638125875E-8    2.7691806741126458E-8    -1.6075988391551648E-9
-0.30000000000000004      -0.7                     -1.5                     1.3857758406156234E-8    3.149235326641673E-8     5.270962926367991E-9
-0.10000000000000009      -0.7                     -1.5                     4.951933220048293E-9     3.459617049024738E-8     9.444738242592124E-9
0.10000000000000009       -0.7                     -1.5                     -4.894548559514215E-9    3.4420722091395E-8       8.862979673578503E-9
0.2999999999999998        -0.7                     -1.5                     -1.3717681469594351E-8   3.2055489834445434E-8    4.395045840170728E-9
0.5                       -0.7                     -1.5                     -1.998676803833833E-8    2.807682625429762E-8     -8.357643382281563E-10
0.7000000000000002        -0.7                     -1.5                     -2.2416867944146706E-8   2.264470376385362E-8     -9.19088988655923E-9
0.8999999999999999        -0.7                     -1.5                     -2.253041657822468E-8    1.763177109821379E-8     -1.5551274562104378E-8
1.1                       -0.7                     -1.5                     -2.0939928398481572E-8   1.3242777155905649E-8    -2.093943700870215E-8
-1.1                      -0.5                     -1.5                     2.4672434496951597E-8    1.1274413592604416E-8    -1.7920717940821797E-8
-0.8999999999999999       -0.5                     -1.5                     2.698207346270039E-8     1.4940124802593843E-8    -1.0866078221980002E-8
-0.7                      -0.5                     -1.5                     2.72445314566676E-8      1.9390488192674188E-8    -1.335260307692995E-9
-0.5                      -0.5                     -1.5                     2.48202245429936E-8      2.4457843365177817E-8    8.798382017412529E-9
-0.30000000000000004      -0.5                     -1.5                     1.737875615713296E-8     2.8995647346429928E-8    1.8773072896475553E-8
-0.10000000000000009      -0.5                     -1.5                     6.131047033293461E-9     3.089273736174666E-8     2.381136371970019E-8
0.10000000000000009       -0.5                     -1.5                     -5.935367885591622E-9    3.181598247187009E-8     2.350290275891364E-8
0.2999999999999998        -0.5                     -1.5                     -1.725276547470467E-8    2.8931794415290597E-8    1.883098728246685E-8
0.5                       -0.5                     -1.5                     -2.4184289281879432E-8   2.450962736770185E-8     8.078215489057557E-9
0.7000000000000002        -0.5                     -1.5                     -2.7440789114050243E-8   1.9960361320115357E-8    -1.5119652425530222E-9
0.8999999999999999        -0.5                     -1.5                     -2.7112861228858235E-8   1.5104028174069026E-8    -1.0642855142864185E-8
1.1                       -0.5                     -1.5                     -2.440967506806539E-8    1.0931435216595602E-8    -1.8176575921314466E-8
-1.1                      -0.30000000000000004     -1.5                     2.7652806669851086E-8    7.589649928095504E-9     -1.557558303578782E-8
-0.8999999999999999       -0.30000000000000004     -1.5                     3.0907289122363355E-8    1.0265199595961824E-8    -6.449943285378153E-9
-0.7                      -0.30000000000000004     -1.5                     3.1772557494608595E-8    1.3980367746096128E-8    5.072019479660772E-9
-0.5                      -0.30000000000000004     -1.5                     2.878253099712802E-8     1.6607858917321468E-8    1.7999711403880638E-8
-0.30000000000000004      -0.30000000000000004     -1.5                     2.0765497734121504E-8    2.0771502418454375E-8    2.9789384977962122E-8
-0.10000000000000009      -0.30000000000000004     -1.5                     7.338265255040683E-9     2.1589260720393213E-8    3.73335230936513E-8
0.10000000000000009       -0.30000000000000004     -1.5                     -7.462653070136827E-9    2.2183180999659416E-8    3.743589617063672E-8
0.2999999999999998        -0.30000000000000004     -1.5                     -2.050363541560278E-8    2.038365813041036E-8     3.021771193376399E-8
0.5                       -0.30000000000000004     -1.5                     -2.851126632999795E-8    1.736379912352778E-8     1.8176429800157447E-8
0.7000000000000002        -0.30000000000000004     -1.5                     -3.1896264342545406E-8   1.3425951520969278E-8    5.2130246829089204E-9
0.8999999999999999        -0.30000000000000004     -1.5                     -3.0934367926695204E-8   1.0294271221102903E-8    -6.4795950373069796E-9
1.1                       -0.30000000000000004     -1.5                     -2.7608630543468995E-8   7.62797046417E-9         -1.5535102536570334E-8
-1.2999999999999998       -0.10000000000000009     -1.5                     2.473756683102633E-8     1.8227127379266946E-9    -2.094509646269806E-8
-1.1                      -0.10000000000000009     -1.5                     2.940344874040239E-8     2.5979898270273204E-9    -1.4127819208321226E-8
-0.8999999999999999       -0.10000000000000009     -1.5                     3.3022036511302724E-8    3.7688963477645524E-9    -4.393725086813445E-9
-0.7                      -0.10000000000000009     -1.5                     3.4375997498184035E-8    4.773723201520149E-9     9.462298222871855E-9
-0.5                      -0.10000000000000009     -1.5                     3.154981474767E-8        6.283619998672491E-9     2.4605346114241185E-8
-0.30000000000000004      -0.10000000000000009     -1.5                     2.1626692581307846E-8    7.057787520349743E-9     3.698648344493283E-8
-0.10000000000000009      -0.10000000000000009     -1.5                     8.213756691418714E-9     8.605179259928373E-9     4.420957799283542E-8
0.10000000000000009       -0.10000000000000009     -1.5                     -7.8189889777963E-9      8.421225342282294E-9     4.529154129047032E-8
0.2999999999999998        -0.10000000000000009     -1.5                     -2.2150940549593544E-8   6.432464852433867E-9     3.751527322388258E-8
0.5                       -0.10000000000000009     -1.5                     -3.106721543884675E-8    6.027337445748405E-9     2.414783511330654E-8
0.7000000000000002        -0.10000000000000009     -1.5                     -3.465561168353949E-8    4.910761355851157E-9     9.482332396538436E-9
0.8999999999999999        -0.10000000000000009     -1.5                     -3.2825727439778204E-8   3.361422491206233E-9     -4.115157610901835E-9
1.1                       -0.10000000000000009     -1.5                     -2.9256386184192825E-8   2.776102695786755E-9     -1.4362911779781697E-8
1.2999999999999998        -0.10000000000000009     -1.5                     -2.4665429337027922E-8   1.8321419608314394E-9    -2.086941748653396E-8
-1.2999999999999998       0.10000000000000009      -1.5                     2.4658350171437596E-8    -1.883120590661339E-9    -2.0886019475229425E-8
-1.1                      0.10000000000000009      -1.5                     2.916219806928387E-8     -2.586359643714141E-9    -1.4146000449699527E-8
-0.8999999999999999       0.10000000000000009      -1.5                     3.3386334009431936E-8    -3.733934329987239E-9    -3.830781064800237E-9
-0.7                      0.10000000000000009      -1.5                     3.457828449715551E-8     -4.982653233796539E-9    9.262549429415304E-9
-0.5                      0.10000000000000009      -1.5                     3.114963024416126E-8     -6.7580914746415775E-9   2.3842476537658073E-8
-0.30000000000000004      0.10000000000000009      -1.5                     2.2379820684936148E-8    -7.715843947531991E-9    3.774068970277756E-8
-0.10000000000000009      0.10000000000000009      -1.5                     7.98770186185094E-9      -8.034090411669353E-9    4.5750245664721213E-8
0.10000000000000009       0.10000000000000009      -1.5                     -8.18248851731403E-9     -7.97611413433839E-9     4.471396843255991E-8
0.2999999999999998        0.10000000000000009      -1.5                     -2.1887998983809574E-8   -7.522010519736008E-9    3.6959123390090254E-8
0.5                       0.10000000000000009      -1.5                     -3.131882445061818E-8    -6.242074182284977E-9    2.42243613918542E-8